     126
 i =        0, time =        0.000, E =     -1140.2051426732
  C        -0.0029803075       -0.0049405997        0.0000000000
  C         1.2317326979        2.1339349755        0.0000000000
  C         2.4661606123       -0.0049384371        0.0000000000
  C         2.4667504718        1.4212916003        0.0000000000
  C         2.4660642350        4.2724969750        0.0000000000
  C         3.7008740566        2.1339370103        0.0000000000
  C         3.7011056877        3.5599214136        0.0000000000
  C         3.7002956351        6.4110457108        0.0000000000
  C         4.9353033188       -0.0049371753        0.0000000000
  C         4.9358925231        1.4212933040        0.0000000000
  C         4.9352056475        4.2724990188        0.0000000000
  C         4.9353323334        5.6984417415        0.0000000000
  C         4.9350085675        8.5499207350        0.0000000000
  C         6.1700170251        2.1339381921        0.0000000000
  C         6.1702478322        3.5599230660        0.0000000000
  C         6.1694365761        6.4110478714        0.0000000000
  C         6.1700263601        7.8372775565        0.0000000000
  C         6.1693400365       10.6884828272        0.0000000000
  C         7.4044486646       -0.0049372616        0.0000000000
  C         7.4050367675        1.4212938311        0.0000000000
  C         7.4043485601        4.2725002464        0.0000000000
  C         7.4044741226        5.6984434777        0.0000000000
  C         7.4041499098        8.5499227636        0.0000000000
  C         7.4043814772        9.9759071227        0.0000000000
  C         8.6391623881        2.1339380754        0.0000000000
  C         8.6393920330        3.5599235912        0.0000000000
  C         8.6385792489        6.4110491156        0.0000000000
  C         8.6391683804        7.8372792406        0.0000000000
  C         8.6384814260       10.6884848638        0.0000000000
  C         8.6386081547       12.1144278900        0.0000000000
  C         9.8735964868       -0.0049386677        0.0000000000
  C         9.8741835005        1.4212929825        0.0000000000
  C         9.8734938261        4.2725001772        0.0000000000
  C         9.8736182216        5.6984440491        0.0000000000
  C         9.8732928663        8.5499239149        0.0000000000
  C         9.8735236105        9.9759087568        0.0000000000
  C        11.1083100173        2.1339367170        0.0000000000
  C        11.1085386310        3.5599227981        0.0000000000
  C        11.1076243518       10.6884860826        0.0000000000
  C        11.1077499578       12.1144296355        0.0000000000
  C        12.3427458096       -0.0049408895        0.0000000000
  C        12.3433320843        1.4212910642        0.0000000000
  C        12.3426413180        4.2724988909        0.0000000000
  C        12.3427649622        5.6984432735        0.0000000000
  C        12.3424382603        8.5499238054        0.0000000000
  C        12.3426678472        9.9759092934        0.0000000000
  C        13.5774589962        2.1339345698        0.0000000000
  C        13.5776869988        3.5599209769        0.0000000000
  C        13.5768724223        6.4110476164        0.0000000000
  C        13.5774593935        7.8372789161        0.0000000000
  C        13.5767696384       10.6884860392        0.0000000000
  C        13.5768940845       12.1144302255        0.0000000000
  C        14.8118950514       -0.0049431042        0.0000000000
  C        14.8124812985        1.4212887863        0.0000000000
  C        14.8117901951        4.2724967949        0.0000000000
  C        14.8119136749        5.6984414328        0.0000000000
  C        14.8115858826        8.5499224623        0.0000000000
  C        14.8118144346        9.9759085088        0.0000000000
  C        16.0466078960        2.1339324804        0.0000000000
  C        16.0468360113        3.5599187779        0.0000000000
  C        16.0460217247        6.4110454135        0.0000000000
  C        16.0466079572        7.8372770159        0.0000000000
  C        16.0459171110       10.6884847554        0.0000000000
  C        16.0460408113       12.1144294491        0.0000000000
  C        17.2810426206       -0.0049443908        0.0000000000
  C        17.2816295104        1.4212870435        0.0000000000
  C        17.2809390107        4.2724947175        0.0000000000
  C        17.2810630284        5.6984391866        0.0000000000
  C        17.2807348403        8.5499203320        0.0000000000
  C        17.2809627951        9.9759067019        0.0000000000
  C        18.5157551912        2.1339312929        0.0000000000
  C        18.5159841228        3.5599171186        0.0000000000
  C        18.5151709575        6.4110432162        0.0000000000
  C        18.5157571539        7.8372747528        0.0000000000
  C        18.5150660041       10.6884826568        0.0000000000
  C        18.5151895318       12.1144276046        0.0000000000
  C        19.7501876415       -0.0049442854        0.0000000000
  C        19.7507756006        1.4212865454        0.0000000000
  C        19.7500863566        4.2724934924        0.0000000000
  C        19.7502114715        5.6984374389        0.0000000000
  C        19.7498837454        8.5499182379        0.0000000000
  C        19.7501118298        9.9759044932        0.0000000000
  C        20.9849001510        2.1339314687        0.0000000000
  C        20.9851302397        3.5599166328        0.0000000000
  C        20.9842148468       10.6884805607        0.0000000000
  C        20.9843389040       12.1144253355        0.0000000000
  C        22.2193301045       -0.0049428291        0.0000000000
  C        22.2199191606        1.4212874299        0.0000000000
  C        22.2192314131        4.2724935726        0.0000000000
  C        22.2193577080        5.6984368583        0.0000000000
  C        22.2190310645        8.5499170528        0.0000000000
  C        22.2192599621        9.9759028265        0.0000000000
  C        23.4540427521        2.1339328614        0.0000000000
  C        23.4542739305        3.5599174308        0.0000000000
  C        23.4534635810        6.4110420371        0.0000000000
  C        23.4540514803        7.8372725070        0.0000000000
  C        23.4533621858       10.6884793263        0.0000000000
  C        23.4534873359       12.1144235666        0.0000000000
  C        24.6890607311        1.4212893460        0.0000000000
  C        24.6883741483        4.2724948908        0.0000000000
  C        24.6885012983        5.6984376386        0.0000000000
  C        24.6881759993        8.5499172182        0.0000000000
  C        24.6884060422        9.9759023231        0.0000000000
  C        25.9234157251        3.5599192538        0.0000000000
  C        25.9226060161        6.4110434845        0.0000000000
  C        25.9231950164        7.8372733897        0.0000000000
  C        25.9225071943       10.6884794054        0.0000000000
  C        25.9226335468       12.1144229886        0.0000000000
  C        27.1576427856        5.6984395099        0.0000000000
  C        27.1573185919        8.5499186179        0.0000000000
  C        27.1575497115        9.9759031421        0.0000000000
  C        28.3923366081        7.8372753149        0.0000000000
  C        28.3916499397       10.6884807390        0.0000000000
  C        28.3917771573       12.1144237906        0.0000000000
  C        29.6266915284        9.9759049717        0.0000000000
  C        30.8609186463       12.1144256569        0.0000000000
 Cu         8.3311399340        6.9504030122        3.9657778775
 Cu         9.4958926878        6.4585302344        1.9638899365
 Cu        10.5810806769        6.2074245448        4.0198331972
 Cu        11.1077165415        7.1466119624       -0.0419864437
 Cu        11.9071601876        6.0014659740        2.0441728964
 Cu        23.7789217043        7.3448743937        3.9660656421
 Cu        21.5124992016        8.0368203601        4.0199428508
 Cu        22.5969764932        7.7904766109        1.9636753438
 Cu        20.9851987645        7.1017276883       -0.0415831883
 Cu        20.1854947364        8.2452423120        2.0444962320